variables = X,Y,Z,V1,V2,V3,V4,V5,V6,V7,V8
zone i = 6290  F=POINT
 -236.9   503.6    75.2  -23.1  -23.1  -23.1 -0.0014  0.0747 -0.0652 2 4
 -259.9   480.6    52.1   23.1   23.1   23.1  0.0000  0.0000  0.0000 2 4
 -236.9   503.6    75.2   22.1   22.1   22.1 -0.0014  0.0747 -0.0652 2 4
 -214.8   525.7    97.3  -22.1  -22.1  -22.1  0.0000  0.0000  0.0000 2 4
 1495.2  -764.3 -1192.8  -23.1  -23.1  -23.1 -0.1041  0.0721  0.0339 2 4
 1472.1  -787.4 -1215.8   23.1   23.1   23.1  0.0000  0.0000  0.0000 2 4
 1495.2  -764.3 -1192.8   23.1   23.1   23.1 -0.1041  0.0721  0.0339 2 4
 1518.2  -741.3 -1169.7  -23.1  -23.1  -23.1  0.0000  0.0000  0.0000 2 4
  227.2   967.7   539.3  -22.1  -22.1  -22.1 30.4890 -15.1358 -15.3260 2 4
  205.1   945.6   517.2   22.1   22.1   22.1  0.0000  0.0000  0.0000 2 4
  227.2   967.7   539.3   23.1   23.1   23.1 30.4890 -15.1358 -15.3260 2 4
  250.3   990.8   562.3  -23.1  -23.1  -23.1  0.0000  0.0000  0.0000 2 4
-1481.8  -741.3 -1169.7   23.1   23.1   23.1 -0.0299  0.0252  0.0105 2 4
-1458.7  -718.2 -1146.7  -23.1  -23.1  -23.1  0.0000  0.0000  0.0000 2 4
-1458.7  -718.2 -1146.7   23.1   23.1   23.1  0.0077  0.0104 -0.0265 2 4
-1435.7  -695.2 -1123.6  -23.1  -23.1  -23.1  0.0000  0.0000  0.0000 2 4
-1435.7  -695.2 -1123.6   23.1   23.1   23.1  1.6393  2.0415 -3.6795 2 4
-1412.6  -672.1 -1100.6  -23.1  -23.1  -23.1  0.0000  0.0000  0.0000 2 4
-1412.6  -672.1 -1100.6   23.1   23.1   23.1  0.1270  0.1892 -0.3004 2 4
-1389.6  -649.1 -1077.5  -23.1  -23.1  -23.1  0.0000  0.0000  0.0000 2 4
-1389.6  -649.1 -1077.5   23.1   23.1   23.1  0.0184  0.0401 -0.0537 2 4
-1366.5  -626.0 -1054.4  -23.1  -23.1  -23.1  0.0000  0.0000  0.0000 2 4
-1366.5  -626.0 -1054.4   23.1   23.1   23.1 -0.0155  0.0411 -0.0314 2 4
-1343.4  -603.0 -1031.4  -23.1  -23.1  -23.1  0.0000  0.0000  0.0000 2 4
-1343.4  -603.0 -1031.4   23.1   23.1   23.1  0.0020 -0.0058 -0.0335 2 4
-1320.4  -579.9 -1008.3  -23.1  -23.1  -23.1  0.0000  0.0000  0.0000 2 4
-1320.4  -579.9 -1008.3   23.1   23.1   23.1  0.1246  0.0005 -0.1392 2 4
-1297.3  -556.9  -985.3  -23.1  -23.1  -23.1  0.0000  0.0000  0.0000 2 4
-1297.3  -556.9  -985.3   23.1   23.1   23.1  0.0211  0.0183  0.0001 2 4
-1274.3  -533.8  -962.2  -23.1  -23.1  -23.1  0.0000  0.0000  0.0000 2 4
-1274.3  -533.8  -962.2   23.1   23.1   23.1  0.0161  0.0214 -0.0067 2 4
-1251.2  -510.7  -939.2  -23.1  -23.1  -23.1  0.0000  0.0000  0.0000 2 4
-1251.2  -510.7  -939.2   23.1   23.1   23.1  0.0246  0.0026 -0.0212 2 4
-1228.2  -487.7  -916.1  -23.1  -23.1  -23.1  0.0000  0.0000  0.0000 2 4
-1228.2  -487.7  -916.1   23.1   23.1   23.1 -0.2079 -0.2237 -0.2754 2 4
-1205.1  -464.6  -893.1  -23.1  -23.1  -23.1  0.0000  0.0000  0.0000 2 4
-1205.1  -464.6  -893.1   23.1   23.1   23.1 40.3517 16.5879 -56.9059 2 4
-1182.1  -441.6  -870.0  -23.1  -23.1  -23.1  0.0000  0.0000  0.0000 2 4
-1182.1  -441.6  -870.0   23.1   23.1   23.1  0.2768  0.2664  0.2212 2 4
-1159.0  -418.5  -847.0  -23.1  -23.1  -23.1  0.0000  0.0000  0.0000 2 4
-1159.0  -418.5  -847.0   23.1   23.1   23.1  0.0377  0.0493  0.0008 2 4
-1136.0  -395.5  -823.9  -23.1  -23.1  -23.1  0.0000  0.0000  0.0000 2 4
-1136.0  -395.5  -823.9   23.1   23.1   23.1  0.0024  0.0118 -0.0243 2 4
-1112.9  -372.4  -800.9  -23.1  -23.1  -23.1  0.0000  0.0000  0.0000 2 4
-1112.9  -372.4  -800.9   23.1   23.1   23.1 -0.1414 -0.1582 -0.1766 2 4
-1089.9  -349.4  -777.8  -23.1  -23.1  -23.1  0.0000  0.0000  0.0000 2 4
-1089.9  -349.4  -777.8   23.1   23.1   23.1 42.4613 -2.7443 -39.7458 2 4
-1066.8  -326.3  -754.8  -23.1  -23.1  -23.1  0.0000  0.0000  0.0000 2 4
-1066.8  -326.3  -754.8   23.1   23.1   23.1  0.2041  0.1179  0.0339 2 4
-1043.7  -303.3  -731.7  -23.1  -23.1  -23.1  0.0000  0.0000  0.0000 2 4
-1043.7  -303.3  -731.7   23.1   23.1   23.1  0.1062  0.0446 -0.0886 2 4
-1020.7  -280.2  -708.6  -23.1  -23.1  -23.1  0.0000  0.0000  0.0000 2 4
-1020.7  -280.2  -708.6   23.1   23.1   23.1  0.0272  0.0202 -0.0304 2 4
 -997.6  -257.2  -685.6  -23.1  -23.1  -23.1  0.0000  0.0000  0.0000 2 4
 -997.6  -257.2  -685.6   23.1   23.1   23.1 -0.0003 -0.0101 -0.0435 2 4
 -974.6  -234.1  -662.5  -23.1  -23.1  -23.1  0.0000  0.0000  0.0000 2 4
 -974.6  -234.1  -662.5   23.1   23.1   23.1 -0.0011 -0.0275 -0.0915 2 4
 -951.5  -211.0  -639.5  -23.1  -23.1  -23.1  0.0000  0.0000  0.0000 2 4
 -951.5  -211.0  -639.5   23.1   23.1   23.1  0.0189  0.0472 -0.0993 2 4
 -928.5  -188.0  -616.4  -23.1  -23.1  -23.1  0.0000  0.0000  0.0000 2 4
 -928.5  -188.0  -616.4   23.1   23.1   23.1  0.0691  0.0608  0.0230 2 4
 -905.4  -164.9  -593.4  -23.1  -23.1  -23.1  0.0000  0.0000  0.0000 2 4
 -905.4  -164.9  -593.4   23.1   23.1   23.1  0.0623  0.0326 -0.0133 2 4
 -882.4  -141.9  -570.3  -23.1  -23.1  -23.1  0.0000  0.0000  0.0000 2 4
 -882.4  -141.9  -570.3   23.1   23.1   23.1 -0.0175 -0.0562 -0.0981 2 4
 -859.3  -118.8  -547.3  -23.1  -23.1  -23.1  0.0000  0.0000  0.0000 2 4
 -859.3  -118.8  -547.3   23.1   23.1   23.1 -0.0604 -0.0675 -0.0846 2 4
 -836.3   -95.8  -524.2  -23.1  -23.1  -23.1  0.0000  0.0000  0.0000 2 4
 -836.3   -95.8  -524.2   23.1   23.1   23.1  0.0733  0.1122  0.0402 2 4
 -813.2   -72.7  -501.2  -23.1  -23.1  -23.1  0.0000  0.0000  0.0000 2 4
 -813.2   -72.7  -501.2   23.1   23.1   23.1  0.1110  0.1452  0.0507 2 4
 -790.2   -49.7  -478.1  -23.1  -23.1  -23.1  0.0000  0.0000  0.0000 2 4
 -790.2   -49.7  -478.1   23.1   23.1   23.1 -0.0280  0.0206 -0.0479 2 4
 -767.1   -26.6  -455.1  -23.1  -23.1  -23.1  0.0000  0.0000  0.0000 2 4
 -767.1   -26.6  -455.1   23.1   23.1   23.1 -0.0612 -0.0646 -0.0919 2 4
 -744.1    -3.6  -432.0  -23.1  -23.1  -23.1  0.0000  0.0000  0.0000 2 4
 -744.1    -3.6  -432.0   23.1   23.1   23.1  6.6778 -0.7696 -6.0015 2 4
 -721.0    19.5  -408.9  -23.1  -23.1  -23.1  0.0000  0.0000  0.0000 2 4
 -721.0    19.5  -408.9   23.1   23.1   23.1  0.1075  0.1516 -0.0695 2 4
 -697.9    42.5  -385.9  -23.1  -23.1  -23.1  0.0000  0.0000  0.0000 2 4
 -697.9    42.5  -385.9   23.1   23.1   23.1  0.0777  0.1103 -0.0204 2 4
 -674.9    65.6  -362.8  -23.1  -23.1  -23.1  0.0000  0.0000  0.0000 2 4
 -674.9    65.6  -362.8   23.1   23.1   23.1 -0.0337  0.0370 -0.0497 2 4
 -651.8    88.6  -339.8  -23.1  -23.1  -23.1  0.0000  0.0000  0.0000 2 4
 -651.8    88.6  -339.8   23.1   23.1   23.1 -0.0523 -0.0593 -0.0738 2 4
 -628.8   111.7  -316.7  -23.1  -23.1  -23.1  0.0000  0.0000  0.0000 2 4
 -628.8   111.7  -316.7   23.1   23.1   23.1 -0.0834 -0.0819 -0.0944 2 4
 -605.7   134.8  -293.7  -23.1  -23.1  -23.1  0.0000  0.0000  0.0000 2 4
 -605.7   134.8  -293.7   23.1   23.1   23.1  0.0327  0.0559 -0.0019 2 4
 -582.7   157.8  -270.6  -23.1  -23.1  -23.1  0.0000  0.0000  0.0000 2 4
 -582.7   157.8  -270.6   23.1   23.1   23.1  0.1121  0.1196  0.0221 2 4
 -559.6   180.9  -247.6  -23.1  -23.1  -23.1  0.0000  0.0000  0.0000 2 4
 -559.6   180.9  -247.6   23.1   23.1   23.1  0.0320  0.0218 -0.0341 2 4
 -536.6   203.9  -224.5  -23.1  -23.1  -23.1  0.0000  0.0000  0.0000 2 4
 -536.6   203.9  -224.5   23.1   23.1   23.1  0.0041 -0.0111 -0.0368 2 4
 -513.5   227.0  -201.5  -23.1  -23.1  -23.1  0.0000  0.0000  0.0000 2 4
 -513.5   227.0  -201.5   23.1   23.1   23.1 -0.0207 -0.0210 -0.0513 2 4
 -490.5   250.0  -178.4  -23.1  -23.1  -23.1  0.0000  0.0000  0.0000 2 4
 -490.5   250.0  -178.4   23.1   23.1   23.1  0.1368  0.2035 -0.2714 2 4
 -467.4   273.1  -155.4  -23.1  -23.1  -23.1  0.0000  0.0000  0.0000 2 4
 -467.4   273.1  -155.4   23.1   23.1   23.1  0.1510  0.1650 -0.1794 2 4
 -444.4   296.1  -132.3  -23.1  -23.1  -23.1  0.0000  0.0000  0.0000 2 4
 -444.4   296.1  -132.3   23.1   23.1   23.1 -0.1638  0.1966 -0.1650 2 4
 -421.3   319.2  -109.3  -23.1  -23.1  -23.1  0.0000  0.0000  0.0000 2 4
 -421.3   319.2  -109.3   23.1   23.1   23.1 -0.0697 -0.0532 -0.0763 2 4
 -398.2   342.2   -86.2  -23.1  -23.1  -23.1  0.0000  0.0000  0.0000 2 4
 -398.2   342.2   -86.2   23.1   23.1   23.1 -0.0540 -0.0704 -0.1367 2 4
 -375.2   365.3   -63.1  -23.1  -23.1  -23.1  0.0000  0.0000  0.0000 2 4
 -375.2   365.3   -63.1   23.1   23.1   23.1  0.5201  1.0282 -0.9987 2 4
 -352.1   388.3   -40.1  -23.1  -23.1  -23.1  0.0000  0.0000  0.0000 2 4
 -352.1   388.3   -40.1   23.1   23.1   23.1  0.2999  0.3285  0.2058 2 4
 -329.1   411.4   -17.0  -23.1  -23.1  -23.1  0.0000  0.0000  0.0000 2 4
 -329.1   411.4   -17.0   23.1   23.1   23.1  0.0187  0.0221 -0.0289 2 4
 -306.0   434.5     6.0  -23.1  -23.1  -23.1  0.0000  0.0000  0.0000 2 4
 -306.0   434.5     6.0   23.1   23.1   23.1 -0.0407 -0.0547 -0.0981 2 4
 -283.0   457.5    29.1  -23.1  -23.1  -23.1  0.0000  0.0000  0.0000 2 4
 -283.0   457.5    29.1   23.1   23.1   23.1  0.3938  0.0345 -0.5254 2 4
 -259.9   480.6    52.1  -23.1  -23.1  -23.1  0.0000  0.0000  0.0000 2 4
  205.1   945.6   517.2  -22.1  -22.1  -22.1  0.0803 -0.1802 -0.1772 2 4
  183.0   923.5   495.1   22.1   22.1   22.1  0.0000  0.0000  0.0000 2 4
  183.0   923.5   495.1  -22.1  -22.1  -22.1  0.0292 -0.0206 -0.0178 2 4
  160.9   901.4   473.0   22.1   22.1   22.1  0.0000  0.0000  0.0000 2 4
  160.9   901.4   473.0  -22.1  -22.1  -22.1  0.0352  0.0123 -0.0253 2 4
  138.8   879.3   450.9   22.1   22.1   22.1  0.0000  0.0000  0.0000 2 4
  138.8   879.3   450.9  -22.1  -22.1  -22.1  0.1434 -0.0058 -0.1225 2 4
  116.7   857.2   428.8   22.1   22.1   22.1  0.0000  0.0000  0.0000 2 4
  116.7   857.2   428.8  -22.1  -22.1  -22.1  0.0267  0.0102 -0.0427 2 4
   94.6   835.1   406.7   22.1   22.1   22.1  0.0000  0.0000  0.0000 2 4
   94.6   835.1   406.7  -22.1  -22.1  -22.1  0.5382  0.4610 -1.0110 2 4
   72.5   813.0   384.6   22.1   22.1   22.1  0.0000  0.0000  0.0000 2 4
   72.5   813.0   384.6  -22.1  -22.1  -22.1  0.0189  0.0154 -0.0431 2 4
   50.4   790.9   362.5   22.1   22.1   22.1  0.0000  0.0000  0.0000 2 4
   50.4   790.9   362.5  -22.1  -22.1  -22.1 -0.0096  0.0379 -0.0248 2 4
   28.3   768.8   340.4   22.1   22.1   22.1  0.0000  0.0000  0.0000 2 4
   28.3   768.8   340.4  -22.1  -22.1  -22.1 -0.0451  0.1505 -0.0986 2 4
    6.2   746.7   318.3   22.1   22.1   22.1  0.0000  0.0000  0.0000 2 4
    6.2   746.7   318.3  -22.1  -22.1  -22.1 -0.0263  0.0207  0.0129 2 4
  -15.9   724.6   296.2   22.1   22.1   22.1  0.0000  0.0000  0.0000 2 4
  -15.9   724.6   296.2  -22.1  -22.1  -22.1 -0.0281  0.0200  0.0022 2 4
  -38.0   702.5   274.1   22.1   22.1   22.1  0.0000  0.0000  0.0000 2 4
  -38.0   702.5   274.1  -22.1  -22.1  -22.1 -0.0209  0.0144  0.0025 2 4
  -60.1   680.4   252.0   22.1   22.1   22.1  0.0000  0.0000  0.0000 2 4
  -60.1   680.4   252.0  -22.1  -22.1  -22.1  0.0185  0.1010  0.0909 2 4
  -82.2   658.3   229.9   22.1   22.1   22.1  0.0000  0.0000  0.0000 2 4
  -82.2   658.3   229.9  -22.1  -22.1  -22.1 -0.8704  0.7865  0.5939 2 4
 -104.3   636.2   207.8   22.1   22.1   22.1  0.0000  0.0000  0.0000 2 4
 -104.3   636.2   207.8  -22.1  -22.1  -22.1  0.1328  0.1645  0.1667 2 4
 -126.4   614.1   185.7   22.1   22.1   22.1  0.0000  0.0000  0.0000 2 4
 -126.4   614.1   185.7  -22.1  -22.1  -22.1 -0.0306  0.0029 -0.0574 2 4
 -148.5   592.0   163.6   22.1   22.1   22.1  0.0000  0.0000  0.0000 2 4
 -148.5   592.0   163.6  -22.1  -22.1  -22.1 -0.1717 -0.0564 -0.1470 2 4
 -170.6   569.9   141.5   22.1   22.1   22.1  0.0000  0.0000  0.0000 2 4
 -170.6   569.9   141.5  -22.1  -22.1  -22.1 -0.0837  0.0506 -0.0228 2 4
 -192.7   547.8   119.4   22.1   22.1   22.1  0.0000  0.0000  0.0000 2 4
 -192.7   547.8   119.4  -22.1  -22.1  -22.1 -0.0181  0.0410 -0.0589 2 4
 -214.8   525.7    97.3   22.1   22.1   22.1  0.0000  0.0000  0.0000 2 4
  250.3   990.8   562.3   23.1   23.1   23.1  0.1392  0.0955  0.0943 2 4
  273.3  1013.8   585.4  -23.1  -23.1  -23.1  0.0000  0.0000  0.0000 2 4
  273.3  1013.8   585.4   23.1   23.1   23.1 -0.2022 -0.2179 -0.2687 2 4
  296.4  1036.9   608.4  -23.1  -23.1  -23.1  0.0000  0.0000  0.0000 2 4
  296.4  1036.9   608.4   23.1   23.1   23.1 40.3557 16.2693 -56.5931 2 4
  319.4  1059.9   631.5  -23.1  -23.1  -23.1  0.0000  0.0000  0.0000 2 4
  319.4  1059.9   631.5   23.1   23.1   23.1  0.2701  0.2595  0.2137 2 4
  342.5  1083.0   654.5  -23.1  -23.1  -23.1  0.0000  0.0000  0.0000 2 4
  342.5  1083.0   654.5   23.1   23.1   23.1  0.0379  0.0503  0.0002 2 4
  365.6  1106.0   677.6  -23.1  -23.1  -23.1  0.0000  0.0000  0.0000 2 4
  365.6  1106.0   677.6   23.1   23.1   23.1  0.0008  0.0123 -0.0251 2 4
  388.6  1129.1   700.7  -23.1  -23.1  -23.1  0.0000  0.0000  0.0000 2 4
  388.6  1129.1   700.7   23.1   23.1   23.1 -0.1363 -0.1529 -0.1706 2 4
  411.7  1152.1   723.7  -23.1  -23.1  -23.1  0.0000  0.0000  0.0000 2 4
  411.7  1152.1   723.7   23.1   23.1   23.1 40.8505 -3.2216 -37.6574 2 4
  434.7  1175.2   746.8  -23.1  -23.1  -23.1  0.0000  0.0000  0.0000 2 4
  434.7  1175.2   746.8   23.1   23.1   23.1  0.1957  0.1122  0.0338 2 4
  457.8  1198.3   769.8  -23.1  -23.1  -23.1  0.0000  0.0000  0.0000 2 4
  457.8  1198.3   769.8   23.1   23.1   23.1  0.1038  0.0437 -0.0862 2 4
  480.8  1221.3   792.9  -23.1  -23.1  -23.1  0.0000  0.0000  0.0000 2 4
  480.8  1221.3   792.9   23.1   23.1   23.1  0.0265  0.0199 -0.0303 2 4
  503.9  1244.4   815.9  -23.1  -23.1  -23.1  0.0000  0.0000  0.0000 2 4
  503.9  1244.4   815.9   23.1   23.1   23.1 -0.0005 -0.0099 -0.0432 2 4
  526.9  1267.4   839.0  -23.1  -23.1  -23.1  0.0000  0.0000  0.0000 2 4
  526.9  1267.4   839.0   23.1   23.1   23.1 -0.0013 -0.0275 -0.0911 2 4
  550.0  1290.5   862.0  -23.1  -23.1  -23.1  0.0000  0.0000  0.0000 2 4
  550.0  1290.5   862.0   23.1   23.1   23.1  0.0186  0.0467 -0.0987 2 4
  573.0  1313.5   885.1  -23.1  -23.1  -23.1  0.0000  0.0000  0.0000 2 4
  573.0  1313.5   885.1   23.1   23.1   23.1  0.0692  0.0607  0.0231 2 4
  596.1  1336.6   908.1  -23.1  -23.1  -23.1  0.0000  0.0000  0.0000 2 4
  596.1  1336.6   908.1   23.1   23.1   23.1  0.0625  0.0327 -0.0133 2 4
  619.1  1359.6   931.2  -23.1  -23.1  -23.1  0.0000  0.0000  0.0000 2 4
  619.1  1359.6   931.2   23.1   23.1   23.1 -0.0175 -0.0564 -0.0984 2 4
  642.2  1382.7   954.2  -23.1  -23.1  -23.1  0.0000  0.0000  0.0000 2 4
  642.2  1382.7   954.2   23.1   23.1   23.1 -0.0602 -0.0675 -0.0845 2 4
  665.2  1405.7   977.3  -23.1  -23.1  -23.1  0.0000  0.0000  0.0000 2 4
  665.2  1405.7   977.3   23.1   23.1   23.1  0.0732  0.1120  0.0406 2 4
  688.3  1428.8  1000.4  -23.1  -23.1  -23.1  0.0000  0.0000  0.0000 2 4
  688.3  1428.8  1000.4   23.1   23.1   23.1  0.1105  0.1444  0.0513 2 4
  711.4  1451.8  1023.4  -23.1  -23.1  -23.1  0.0000  0.0000  0.0000 2 4
  711.4  1451.8  1023.4   23.1   23.1   23.1 -0.0266  0.0204 -0.0469 2 4
  734.4  1474.9  1046.5  -23.1  -23.1  -23.1  0.0000  0.0000  0.0000 2 4
  734.4  1474.9  1046.5   23.1   23.1   23.1 -0.0609 -0.0646 -0.0921 2 4
  757.5  1497.9  1069.5  -23.1  -23.1  -23.1  0.0000  0.0000  0.0000 2 4
  757.5  1497.9  1069.5   23.1   23.1   23.1  7.1614 -0.7746 -6.4798 2 4
  780.5  1521.0  1092.6  -23.1  -23.1  -23.1  0.0000  0.0000  0.0000 2 4
  780.5 -1479.0  1092.6   23.1   23.1   23.1  0.1071  0.1482 -0.0665 2 4
  803.6 -1455.9  1115.6  -23.1  -23.1  -23.1  0.0000  0.0000  0.0000 2 4
  803.6 -1455.9  1115.6   23.1   23.1   23.1  0.0774  0.1103 -0.0227 2 4
  826.6 -1432.9  1138.7  -23.1  -23.1  -23.1  0.0000  0.0000  0.0000 2 4
  826.6 -1432.9  1138.7   23.1   23.1   23.1 -0.0342  0.0382 -0.0499 2 4
  849.7 -1409.8  1161.7  -23.1  -23.1  -23.1  0.0000  0.0000  0.0000 2 4
  849.7 -1409.8  1161.7   23.1   23.1   23.1 -0.0498 -0.0564 -0.0708 2 4
  872.7 -1386.8  1184.8  -23.1  -23.1  -23.1  0.0000  0.0000  0.0000 2 4
  872.7 -1386.8  1184.8   23.1   23.1   23.1 -0.0802 -0.0786 -0.0912 2 4
  895.8 -1363.7  1207.8  -23.1  -23.1  -23.1  0.0000  0.0000  0.0000 2 4
  895.8 -1363.7  1207.8   23.1   23.1   23.1  0.0314  0.0552 -0.0044 2 4
  918.8 -1340.7  1230.9  -23.1  -23.1  -23.1  0.0000  0.0000  0.0000 2 4
  918.8 -1340.7  1230.9   23.1   23.1   23.1  0.1096  0.1172  0.0179 2 4
  941.9 -1317.6  1253.9  -23.1  -23.1  -23.1  0.0000  0.0000  0.0000 2 4
  941.9 -1317.6  1253.9   23.1   23.1   23.1  0.0310  0.0218 -0.0338 2 4
  964.9 -1294.6  1277.0  -23.1  -23.1  -23.1  0.0000  0.0000  0.0000 2 4
  964.9 -1294.6  1277.0   23.1   23.1   23.1  0.0040 -0.0103 -0.0359 2 4
  988.0 -1271.5  1300.0  -23.1  -23.1  -23.1  0.0000  0.0000  0.0000 2 4
  988.0 -1271.5  1300.0   23.1   23.1   23.1 -0.0199 -0.0202 -0.0508 2 4
 1011.1 -1248.5  1323.1  -23.1  -23.1  -23.1  0.0000  0.0000  0.0000 2 4
 1011.1 -1248.5  1323.1   23.1   23.1   23.1  0.1400  0.2068 -0.2802 2 4
 1034.1 -1225.4  1346.2  -23.1  -23.1  -23.1  0.0000  0.0000  0.0000 2 4
 1034.1 -1225.4  1346.2   23.1   23.1   23.1  0.1455  0.1581 -0.1704 2 4
 1057.2 -1202.4  1369.2  -23.1  -23.1  -23.1  0.0000  0.0000  0.0000 2 4
 1057.2 -1202.4  1369.2   23.1   23.1   23.1 -0.1606  0.1870 -0.1617 2 4
 1080.2 -1179.3  1392.3  -23.1  -23.1  -23.1  0.0000  0.0000  0.0000 2 4
 1080.2 -1179.3  1392.3   23.1   23.1   23.1 -0.0728 -0.0568 -0.0796 2 4
 1103.3 -1156.2  1415.3  -23.1  -23.1  -23.1  0.0000  0.0000  0.0000 2 4
 1103.3 -1156.2  1415.3   23.1   23.1   23.1 -0.0547 -0.0739 -0.1431 2 4
 1126.3 -1133.2  1438.4  -23.1  -23.1  -23.1  0.0000  0.0000  0.0000 2 4
 1126.3 -1133.2  1438.4   23.1   23.1   23.1  0.5166  1.0411 -1.0024 2 4
 1149.4 -1110.1  1461.4  -23.1  -23.1  -23.1  0.0000  0.0000  0.0000 2 4
 1149.4 -1110.1  1461.4   23.1   23.1   23.1  0.2988  0.3257  0.2102 2 4
 1172.4 -1087.1  1484.5  -23.1  -23.1  -23.1  0.0000  0.0000  0.0000 2 4
 1172.4 -1087.1  1484.5   23.1   23.1   23.1  0.0239  0.0212 -0.0255 2 4
 1195.5 -1064.0  1507.5  -23.1  -23.1  -23.1  0.0000  0.0000  0.0000 2 4
 1195.5 -1064.0 -1492.5   23.1   23.1   23.1 -0.0381 -0.0525 -0.0971 2 4
 1218.5 -1041.0 -1469.4  -23.1  -23.1  -23.1  0.0000  0.0000  0.0000 2 4
 1218.5 -1041.0 -1469.4   23.1   23.1   23.1  0.5220  0.0606 -0.6770 2 4
 1241.6 -1017.9 -1446.4  -23.1  -23.1  -23.1  0.0000  0.0000  0.0000 2 4
 1241.6 -1017.9 -1446.4   23.1   23.1   23.1  0.0516  0.1108 -0.0583 2 4
 1264.6  -994.9 -1423.3  -23.1  -23.1  -23.1  0.0000  0.0000  0.0000 2 4
 1264.6  -994.9 -1423.3   23.1   23.1   23.1  0.0398  0.0484  0.0048 2 4
 1287.7  -971.8 -1400.3  -23.1  -23.1  -23.1  0.0000  0.0000  0.0000 2 4
 1287.7  -971.8 -1400.3   23.1   23.1   23.1 -0.0006  0.0098 -0.0227 2 4
 1310.8  -948.8 -1377.2  -23.1  -23.1  -23.1  0.0000  0.0000  0.0000 2 4
 1310.8  -948.8 -1377.2   23.1   23.1   23.1 -0.1364 -0.1494 -0.1645 2 4
 1333.8  -925.7 -1354.1  -23.1  -23.1  -23.1  0.0000  0.0000  0.0000 2 4
 1333.8  -925.7 -1354.1   23.1   23.1   23.1 26.8988 -2.5090 -24.4808 2 4
 1356.9  -902.7 -1331.1  -23.1  -23.1  -23.1  0.0000  0.0000  0.0000 2 4
 1356.9  -902.7 -1331.1   23.1   23.1   23.1  0.0523  0.0179 -0.0136 2 4
 1379.9  -879.6 -1308.0  -23.1  -23.1  -23.1  0.0000  0.0000  0.0000 2 4
 1379.9  -879.6 -1308.0   23.1   23.1   23.1 -0.0195  0.3079  0.3680 2 4
 1403.0  -856.6 -1285.0  -23.1  -23.1  -23.1  0.0000  0.0000  0.0000 2 4
 1403.0  -856.6 -1285.0   23.1   23.1   23.1  0.2114  0.3514  0.3240 2 4
 1426.0  -833.5 -1261.9  -23.1  -23.1  -23.1  0.0000  0.0000  0.0000 2 4
 1426.0  -833.5 -1261.9   23.1   23.1   23.1 -0.1248  0.1405 -0.0581 2 4
 1449.1  -810.4 -1238.9  -23.1  -23.1  -23.1  0.0000  0.0000  0.0000 2 4
 1449.1  -810.4 -1238.9   23.1   23.1   23.1  0.0155 -0.0029 -0.0063 2 4
 1472.1  -787.4 -1215.8  -23.1  -23.1  -23.1  0.0000  0.0000  0.0000 2 4
-1266.5   881.1  1308.3   23.1  -23.1  -23.1  0.1241 -0.0807 -0.1820 2 1
-1243.5   858.0  1285.3  -23.1   23.1   23.1  0.0000  0.0000  0.0000 2 1
-1266.5   881.1  1308.3  -22.1   22.1   22.1  0.1241 -0.0807 -0.1820 2 1
-1288.6   903.2  1330.4   22.1  -22.1  -22.1  0.0000  0.0000  0.0000 2 1
    1.4  -386.9    40.4   23.1  -23.1  -23.1 -0.0098 -0.0267  0.0365 2 1
   24.5  -409.9    17.3  -23.1   23.1   23.1  0.0000  0.0000  0.0000 2 1
    1.4  -386.9    40.4  -23.1   23.1   23.1 -0.0098 -0.0267  0.0365 2 1
  -21.7  -363.8    63.4   23.1  -23.1  -23.1  0.0000  0.0000  0.0000 2 1
 1269.4  1345.2 -1227.6   22.1  -22.1  -22.1  0.0191  0.0274 -0.0052 2 1
 1291.5  1323.1 -1249.7  -22.1   22.1   22.1  0.0000  0.0000  0.0000 2 1
 1269.4  1345.2 -1227.6  -23.1   23.1   23.1  0.0191  0.0274 -0.0052 2 1
 1246.3  1368.2 -1204.5   23.1  -23.1  -23.1  0.0000  0.0000  0.0000 2 1
  -21.7  -363.8    63.4  -23.1   23.1   23.1  0.0369 -0.0580 -0.0253 2 1
  -44.7  -340.8    86.5   23.1  -23.1  -23.1  0.0000  0.0000  0.0000 2 1
  -44.7  -340.8    86.5  -23.1   23.1   23.1 -0.0165 -0.0114  0.0272 2 1
  -67.8  -317.7   109.5   23.1  -23.1  -23.1  0.0000  0.0000  0.0000 2 1
  -67.8  -317.7   109.5  -23.1   23.1   23.1 -0.0433  0.0141  0.0651 2 1
  -90.8  -294.6   132.6   23.1  -23.1  -23.1  0.0000  0.0000  0.0000 2 1
  -90.8  -294.6   132.6  -23.1   23.1   23.1 -0.1704 -0.0835 -0.0035 2 1
 -113.9  -271.6   155.6   23.1  -23.1  -23.1  0.0000  0.0000  0.0000 2 1
 -113.9  -271.6   155.6  -23.1   23.1   23.1  0.3445 -0.3509 -1.0136 2 1
 -136.9  -248.5   178.7   23.1  -23.1  -23.1  0.0000  0.0000  0.0000 2 1
 -136.9  -248.5   178.7  -23.1   23.1   23.1 -1.0204  0.7520 -2.7891 2 1
 -160.0  -225.5   201.7   23.1  -23.1  -23.1  0.0000  0.0000  0.0000 2 1
 -160.0  -225.5   201.7  -23.1   23.1   23.1 -0.2463  0.2280 -0.0985 2 1
 -183.0  -202.4   224.8   23.1  -23.1  -23.1  0.0000  0.0000  0.0000 2 1
 -183.0  -202.4   224.8  -23.1   23.1   23.1 -0.0147  0.0243  0.0025 2 1
 -206.1  -179.4   247.9   23.1  -23.1  -23.1  0.0000  0.0000  0.0000 2 1
 -206.1  -179.4   247.9  -23.1   23.1   23.1  0.0441  0.0357  0.0137 2 1
 -229.1  -156.3   270.9   23.1  -23.1  -23.1  0.0000  0.0000  0.0000 2 1
 -229.1  -156.3   270.9  -23.1   23.1   23.1  0.0165 -0.0004  0.0105 2 1
 -252.2  -133.3   294.0   23.1  -23.1  -23.1  0.0000  0.0000  0.0000 2 1
 -252.2  -133.3   294.0  -23.1   23.1   23.1  0.0187  0.0014 -0.0021 2 1
 -275.2  -110.2   317.0   23.1  -23.1  -23.1  0.0000  0.0000  0.0000 2 1
 -275.2  -110.2   317.0  -23.1   23.1   23.1  0.0213  0.0040 -0.0010 2 1
 -298.3   -87.2   340.1   23.1  -23.1  -23.1  0.0000  0.0000  0.0000 2 1
 -298.3   -87.2   340.1  -23.1   23.1   23.1  0.0195  0.0151  0.0213 2 1
 -321.3   -64.1   363.1   23.1  -23.1  -23.1  0.0000  0.0000  0.0000 2 1
 -321.3   -64.1   363.1  -23.1   23.1   23.1  0.0252  0.0229  0.0228 2 1
 -344.4   -41.1   386.2   23.1  -23.1  -23.1  0.0000  0.0000  0.0000 2 1
 -344.4   -41.1   386.2  -23.1   23.1   23.1  0.0220 -0.0225  0.0261 2 1
 -367.5   -18.0   409.2   23.1  -23.1  -23.1  0.0000  0.0000  0.0000 2 1
 -367.5   -18.0   409.2  -23.1   23.1   23.1  0.0216 -0.0160  0.0213 2 1
 -390.5     5.1   432.3   23.1  -23.1  -23.1  0.0000  0.0000  0.0000 2 1
 -390.5     5.1   432.3  -23.1   23.1   23.1  0.0003 -0.0069  0.0246 2 1
 -413.6    28.1   455.3   23.1  -23.1  -23.1  0.0000  0.0000  0.0000 2 1
 -413.6    28.1   455.3  -23.1   23.1   23.1 -0.0012 -0.0028  0.0208 2 1
 -436.6    51.2   478.4   23.1  -23.1  -23.1  0.0000  0.0000  0.0000 2 1
 -436.6    51.2   478.4  -23.1   23.1   23.1  0.0104 -0.0010  0.0173 2 1
 -459.7    74.2   501.4   23.1  -23.1  -23.1  0.0000  0.0000  0.0000 2 1
 -459.7    74.2   501.4  -23.1   23.1   23.1  0.0234 -0.0360  0.0456 2 1
 -482.7    97.3   524.5   23.1  -23.1  -23.1  0.0000  0.0000  0.0000 2 1
 -482.7    97.3   524.5  -23.1   23.1   23.1  0.0205 -0.0406  0.0356 2 1
 -505.8   120.3   547.5   23.1  -23.1  -23.1  0.0000  0.0000  0.0000 2 1
 -505.8   120.3   547.5  -23.1   23.1   23.1 -0.0508 -0.2614  0.2306 2 1
 -528.8   143.4   570.6   23.1  -23.1  -23.1  0.0000  0.0000  0.0000 2 1
 -528.8   143.4   570.6  -23.1   23.1   23.1 -0.0109 -0.0289  0.0529 2 1
 -551.9   166.4   593.7   23.1  -23.1  -23.1  0.0000  0.0000  0.0000 2 1
 -551.9   166.4   593.7  -23.1   23.1   23.1  0.1974  0.0733  0.1287 2 1
 -574.9   189.5   616.7   23.1  -23.1  -23.1  0.0000  0.0000  0.0000 2 1
 -574.9   189.5   616.7  -23.1   23.1   23.1  1.3409 -1.3337 -0.5946 2 1
 -598.0   212.5   639.8   23.1  -23.1  -23.1  0.0000  0.0000  0.0000 2 1
 -598.0   212.5   639.8  -23.1   23.1   23.1  1.4399 -1.4834 -1.2145 2 1
 -621.0   235.6   662.8   23.1  -23.1  -23.1  0.0000  0.0000  0.0000 2 1
 -621.0   235.6   662.8  -23.1   23.1   23.1 -0.0490  0.0642  0.0542 2 1
 -644.1   258.6   685.9   23.1  -23.1  -23.1  0.0000  0.0000  0.0000 2 1
 -644.1   258.6   685.9  -23.1   23.1   23.1  0.1438  0.2428  0.1633 2 1
 -667.2   281.7   708.9   23.1  -23.1  -23.1  0.0000  0.0000  0.0000 2 1
 -667.2   281.7   708.9  -23.1   23.1   23.1  0.0837  0.0931  0.0788 2 1
 -690.2   304.7   732.0   23.1  -23.1  -23.1  0.0000  0.0000  0.0000 2 1
 -690.2   304.7   732.0  -23.1   23.1   23.1  0.0375 -0.0185  0.0358 2 1
 -713.3   327.8   755.0   23.1  -23.1  -23.1  0.0000  0.0000  0.0000 2 1
 -713.3   327.8   755.0  -23.1   23.1   23.1  0.0392 -0.0119  0.0240 2 1
 -736.3   350.9   778.1   23.1  -23.1  -23.1  0.0000  0.0000  0.0000 2 1
 -736.3   350.9   778.1  -23.1   23.1   23.1  0.0325 -0.0020  0.0375 2 1
 -759.4   373.9   801.1   23.1  -23.1  -23.1  0.0000  0.0000  0.0000 2 1
 -759.4   373.9   801.1  -23.1   23.1   23.1  0.0228  0.0056  0.0407 2 1
 -782.4   397.0   824.2   23.1  -23.1  -23.1  0.0000  0.0000  0.0000 2 1
 -782.4   397.0   824.2  -23.1   23.1   23.1 -0.0115 -0.0143  0.0181 2 1
 -805.5   420.0   847.2   23.1  -23.1  -23.1  0.0000  0.0000  0.0000 2 1
 -805.5   420.0   847.2  -23.1   23.1   23.1  0.0778 -0.0827 -0.0772 2 1
 -828.5   443.1   870.3   23.1  -23.1  -23.1  0.0000  0.0000  0.0000 2 1
 -828.5   443.1   870.3  -23.1   23.1   23.1 -1.2078  1.1246  0.6719 2 1
 -851.6   466.1   893.4   23.1  -23.1  -23.1  0.0000  0.0000  0.0000 2 1
 -851.6   466.1   893.4  -23.1   23.1   23.1 -1.1933  1.1999  1.0728 2 1
 -874.6   489.2   916.4   23.1  -23.1  -23.1  0.0000  0.0000  0.0000 2 1
 -874.6   489.2   916.4  -23.1   23.1   23.1 -0.5217  0.7382  0.0065 2 1
 -897.7   512.2   939.5   23.1  -23.1  -23.1  0.0000  0.0000  0.0000 2 1
 -897.7   512.2   939.5  -23.1   23.1   23.1  0.1382  0.3771 -0.2514 2 1
 -920.7   535.3   962.5   23.1  -23.1  -23.1  0.0000  0.0000  0.0000 2 1
 -920.7   535.3   962.5  -23.1   23.1   23.1 -0.0943  0.1218 -0.3192 2 1
 -943.8   558.3   985.6   23.1  -23.1  -23.1  0.0000  0.0000  0.0000 2 1
 -943.8   558.3   985.6  -23.1   23.1   23.1 -0.9449  0.7328 -1.7344 2 1
 -966.8   581.4  1008.6   23.1  -23.1  -23.1  0.0000  0.0000  0.0000 2 1
 -966.8   581.4  1008.6  -23.1   23.1   23.1 -0.1188  0.1280 -0.2106 2 1
 -989.9   604.4  1031.7   23.1  -23.1  -23.1  0.0000  0.0000  0.0000 2 1
 -989.9   604.4  1031.7  -23.1   23.1   23.1 -0.0800  0.0470 -0.1685 2 1
-1013.0   627.5  1054.7   23.1  -23.1  -23.1  0.0000  0.0000  0.0000 2 1
-1013.0   627.5  1054.7  -23.1   23.1   23.1  0.0261 -0.0196 -0.0418 2 1
-1036.0   650.6  1077.8   23.1  -23.1  -23.1  0.0000  0.0000  0.0000 2 1
-1036.0   650.6  1077.8  -23.1   23.1   23.1  2.4402  4.3237 -1.8827 2 1
-1059.1   673.6  1100.8   23.1  -23.1  -23.1  0.0000  0.0000  0.0000 2 1
-1059.1   673.6  1100.8  -23.1   23.1   23.1 -0.0217  0.0268  0.0138 2 1
-1082.1   696.7  1123.9   23.1  -23.1  -23.1  0.0000  0.0000  0.0000 2 1
-1082.1   696.7  1123.9  -23.1   23.1   23.1 -0.0280  0.0234  0.0013 2 1
-1105.2   719.7  1146.9   23.1  -23.1  -23.1  0.0000  0.0000  0.0000 2 1
-1105.2   719.7  1146.9  -23.1   23.1   23.1 -0.0153  0.0431 -0.0360 2 1
-1128.2   742.8  1170.0   23.1  -23.1  -23.1  0.0000  0.0000  0.0000 2 1
-1128.2   742.8  1170.0  -23.1   23.1   23.1 -0.0016  0.0204 -0.0375 2 1
-1151.3   765.8  1193.0   23.1  -23.1  -23.1  0.0000  0.0000  0.0000 2 1
-1151.3   765.8  1193.0  -23.1   23.1   23.1  0.0091  0.1198 -0.1129 2 1
-1174.3   788.9  1216.1   23.1  -23.1  -23.1  0.0000  0.0000  0.0000 2 1
-1174.3   788.9  1216.1  -23.1   23.1   23.1 -0.0560  0.0406 -0.0911 2 1
-1197.4   811.9  1239.2   23.1  -23.1  -23.1  0.0000  0.0000  0.0000 2 1
-1197.4   811.9  1239.2  -23.1   23.1   23.1 -0.0075  0.0812 -0.0672 2 1
-1220.4   835.0  1262.2   23.1  -23.1  -23.1  0.0000  0.0000  0.0000 2 1
-1220.4   835.0  1262.2  -23.1   23.1   23.1 -0.0272  0.0276 -0.0149 2 1
-1243.5   858.0  1285.3   23.1  -23.1  -23.1  0.0000  0.0000  0.0000 2 1
 1291.5  1323.1 -1249.7   22.1  -22.1  -22.1  0.0117  0.0130  0.0014 2 1
 1313.6  1301.0 -1271.8  -22.1   22.1   22.1  0.0000  0.0000  0.0000 2 1
 1313.6  1301.0 -1271.8   22.1  -22.1  -22.1 -0.0028  0.0294 -0.0194 2 1
 1335.7  1278.9 -1293.9  -22.1   22.1   22.1  0.0000  0.0000  0.0000 2 1
 1335.7  1278.9 -1293.9   22.1  -22.1  -22.1  0.0288  0.0148 -0.0170 2 1
 1357.8  1256.8 -1316.0  -22.1   22.1   22.1  0.0000  0.0000  0.0000 2 1
 1357.8  1256.8 -1316.0   22.1  -22.1  -22.1 -0.3687  0.2411  0.2483 2 1
 1379.9  1234.7 -1338.1  -22.1   22.1   22.1  0.0000  0.0000  0.0000 2 1
 1379.9  1234.7 -1338.1   22.1  -22.1  -22.1 -0.1235 -0.3235 -0.4472 2 1
 1402.0  1212.6 -1360.2  -22.1   22.1   22.1  0.0000  0.0000  0.0000 2 1
 1402.0  1212.6 -1360.2   22.1  -22.1  -22.1  0.4227 -0.5174 -0.5542 2 1
 1424.1  1190.5 -1382.3  -22.1   22.1   22.1  0.0000  0.0000  0.0000 2 1
 1424.1  1190.5 -1382.3   22.1  -22.1  -22.1 -0.1323 -0.3124 -0.0248 2 1
 1446.2  1168.4 -1404.4  -22.1   22.1   22.1  0.0000  0.0000  0.0000 2 1
 1446.2  1168.4 -1404.4   22.1  -22.1  -22.1 -0.0193 -0.1008 -0.0254 2 1
 1468.3  1146.3 -1426.5  -22.1   22.1   22.1  0.0000  0.0000  0.0000 2 1
 1468.3  1146.3 -1426.5   22.1  -22.1  -22.1 -0.0635 -0.0389  0.0428 2 1
 1490.4  1124.2 -1448.6  -22.1   22.1   22.1  0.0000  0.0000  0.0000 2 1
 1490.4  1124.2 -1448.6   22.1  -22.1  -22.1  0.0002 -0.0639  0.0149 2 1
 1512.5  1102.1 -1470.7  -22.1   22.1   22.1  0.0000  0.0000  0.0000 2 1
-1487.5  1102.1 -1470.7   22.1  -22.1  -22.1  0.0262 -0.1230  0.0520 2 1
-1465.4  1080.0 -1492.8  -22.1   22.1   22.1  0.0000  0.0000  0.0000 2 1
-1465.4  1080.0 -1492.8   22.1  -22.1  -22.1 -0.1381 -0.0186  0.1718 2 1
-1443.3  1057.9 -1514.9  -22.1   22.1   22.1  0.0000  0.0000  0.0000 2 1
-1443.3  1057.9  1485.1   22.1  -22.1  -22.1 -7.4437 -21.0371 13.6574 2 1
-1421.2  1035.8  1463.0  -22.1   22.1   22.1  0.0000  0.0000  0.0000 2 1
-1421.2  1035.8  1463.0   22.1  -22.1  -22.1  0.0669 -0.1023 -0.0654 2 1
-1399.1  1013.7  1440.9  -22.1   22.1   22.1  0.0000  0.0000  0.0000 2 1
-1399.1  1013.7  1440.9   22.1  -22.1  -22.1 -0.0059 -0.0119  0.0170 2 1